# vtk DataFile Version 2.0
2D Surface
ASCII
DATASET RECTILINEAR_GRID
DIMENSIONS 11 11 1
X_COORDINATES 11 float
0
1
2
3
4
5
6
7
8
9
10
Y_COORDINATES 11 float
0
1
2
3
4
5
6
7
8
9
10
Z_COORDINATES 1 float
0
POINT_DATA 121
SCALARS SDValues float
LOOKUP_TABLE default
4.16787 3.60467 3.16603 3.00106 2.979 2.975 2.979 2.98885 3.15027 3.58482 4.17422 
3.58025 2.83698 2.25585 2.0112 2.00293 2 2.00293 2.0112 2.25585 2.83698 3.58025 
3.13668 2.25585 1.45494 1.02687 1.00507 1 1.00507 1.02687 1.45494 2.25585 3.13668 
2.96418 2.0112 1.02687 0.0692413 0.025 0 0.025 0.0692413 1.02687 2.0112 2.96418 
2.954 2.00293 1.00507 0.025 -0.929289 -0.939645 -0.929289 0.025 1.00507 2.00293 2.954 
2.95 2 1 0 -0.939645 -1.8 -0.939645 0 1 2 2.95 
2.954 2.00293 1.00507 0.025 -0.929289 -0.939645 -0.929289 0.025 1.00507 2.00293 2.954 
2.96418 2.0112 1.02687 0.0692413 0.025 0 0.025 0.0692413 1.02687 2.0112 2.96418 
3.13668 2.25585 1.45494 1.02687 1.00507 1 1.00507 1.02687 1.45494 2.25585 3.13668 
3.58025 2.83698 2.25585 2.0112 2.00293 2 2.00293 2.0112 2.25585 2.83698 3.58025 
4.17422 3.58482 3.15027 2.98885 2.979 2.975 2.979 3.00106 3.16603 3.60467 4.16787 
