# vtk DataFile Version 2.0
2D Surface
ASCII
DATASET RECTILINEAR_GRID
DIMENSIONS 11 11 1
X_COORDINATES 11 float
0
1
2
3
4
5
6
7
8
9
10
Y_COORDINATES 11 float
0
1
2
3
4
5
6
7
8
9
10
Z_COORDINATES 1 float
0
POINT_DATA 121
SCALARS SDValues float
LOOKUP_TABLE default
3.59876 2.93294 2.35946 1.90676 1.60856 1.5 1.60856 1.90676 2.35946 2.93294 3.59876 
2.93294 2.19239 1.53842 1.00502 0.638764 0.5 0.638764 1.00502 1.53842 2.19239 2.93294 
2.35946 1.53842 0.79215 0.158222 -0.307881 -0.5 -0.307881 0.158222 0.79215 1.53842 2.35946 
1.90676 1.00502 0.158222 -0.590434 -1.19148 -1.5 -1.19148 -0.590434 0.158222 1.00502 1.90676 
1.60856 0.638764 -0.307881 -1.19148 -1.87868 -2.5 -1.87868 -1.19148 -0.307881 0.638764 1.60856 
1.5 0.5 -0.5 -1.5 -2.5 -3.5 -2.5 -1.5 -0.5 0.5 1.5 
1.60856 0.638764 -0.307881 -1.19148 -1.87868 -2.5 -1.87868 -1.19148 -0.307881 0.638764 1.60856 
1.90676 1.00502 0.158222 -0.590434 -1.19148 -1.5 -1.19148 -0.590434 0.158222 1.00502 1.90676 
2.35946 1.53842 0.79215 0.158222 -0.307881 -0.5 -0.307881 0.158222 0.79215 1.53842 2.35946 
2.93294 2.19239 1.53842 1.00502 0.638764 0.5 0.638764 1.00502 1.53842 2.19239 2.93294 
3.59876 2.93294 2.35946 1.90676 1.60856 1.5 1.60856 1.90676 2.35946 2.93294 3.59876 
