# vtk DataFile Version 2.0
2D Surface
ASCII
DATASET RECTILINEAR_GRID
DIMENSIONS 23 0 1
X_COORDINATES 23 float
0
1
2
3
4
5
6
7
8
9
10
11
12
13
14
15
16
17
18
19
20
21
22
Y_COORDINATES 23 float
0
1
2
3
4
5
6
7
8
9
10
11
12
13
14
15
16
17
18
19
20
21
22
Z_COORDINATES 1 float
0
POINT_DATA 529
SCALARS SDValues float
LOOKUP_TABLE default
