# vtk DataFile Version 2.0
2D Surface
ASCII
DATASET RECTILINEAR_GRID
DIMENSIONS 11 11 1
X_COORDINATES 11 float
0
1
2
3
4
5
6
7
8
9
10
Y_COORDINATES 11 float
0
1
2
3
4
5
6
7
8
9
10
Z_COORDINATES 1 float
0
POINT_DATA 121
SCALARS SDValues float
LOOKUP_TABLE default
3.12795 2.46462 1.89067 1.43187 1.12063 1 1.12063 1.43187 1.89067 2.46462 3.12795 
2.46462 1.72996 1.07977 0.543715 0.160383 0 0.160383 0.543715 1.07977 1.72996 2.46462 
1.89067 1.07977 0.343895 -0.282725 -0.760001 -1 -0.760001 -0.282725 0.343895 1.07977 1.89067 
1.43187 0.543715 -0.282725 -1.01543 -1.56812 -2 -1.56812 -1.01543 -0.282725 0.543715 1.43187 
1.12063 0.160383 -0.760001 -1.56812 -2.31802 -3 -2.31802 -1.56812 -0.760001 0.160383 1.12063 
1 0 -1 -2 -3 -4 -3 -2 -1 0 1 
1.12063 0.160383 -0.760001 -1.56812 -2.31802 -3 -2.31802 -1.56812 -0.760001 0.160383 1.12063 
1.43187 0.543715 -0.282725 -1.01543 -1.56812 -2 -1.56812 -1.01543 -0.282725 0.543715 1.43187 
1.89067 1.07977 0.343895 -0.282725 -0.760001 -1 -0.760001 -0.282725 0.343895 1.07977 1.89067 
2.46462 1.72996 1.07977 0.543715 0.160383 0 0.160383 0.543715 1.07977 1.72996 2.46462 
3.12795 2.46462 1.89067 1.43187 1.12063 1 1.12063 1.43187 1.89067 2.46462 3.12795 
